Program Version,EnergyPlus, Version 8.2.0-e53a815bb2, YMD=2015.12.15 14:42
1,5,Environment Title[],Latitude[deg],Longitude[deg],Time Zone[],Elevation[m]
2,6,Day of Simulation[],Month[],Day of Month[],DST Indicator[1=yes 0=no],Hour[],StartMinute[],EndMinute[],DayType
3,3,Cumulative Day of Simulation[],Month[],Day of Month[],DST Indicator[1=yes 0=no],DayType  ! When Daily Report Variables Requested
4,2,Cumulative Days of Simulation[],Month[]  ! When Monthly Report Variables Requested
5,1,Cumulative Days of Simulation[] ! When Run Period Report Variables Requested
6,1,Environment,Site Outdoor Air Drybulb Temperature [C] !TimeStep
7,1,ZONE_1,Zone Windows Total Transmitted Solar Radiation Rate [W] !TimeStep
8,1,SURFACE_1,Surface Inside Face Temperature [C] !TimeStep
9,1,SURFACE_1,Surface Outside Face Temperature [C] !TimeStep
10,1,SURFACE_1,Surface Outside Face Solar Radiation Heat Gain Rate per Area [W/m2] !TimeStep
11,1,SURFACE_2,Surface Outside Face Solar Radiation Heat Gain Rate per Area [W/m2] !TimeStep
12,1,SURFACE_3,Surface Outside Face Solar Radiation Heat Gain Rate per Area [W/m2] !TimeStep
13,1,SURFACE_4,Surface Outside Face Solar Radiation Heat Gain Rate per Area [W/m2] !TimeStep
14,1,SURFACE_5,Surface Outside Face Temperature [C] !TimeStep
15,1,SURFACE_6,Surface Outside Face Solar Radiation Heat Gain Rate per Area [W/m2] !TimeStep
16,1,ZONE_1,Zone Mean Air Temperature [C] !TimeStep
17,1,WINDOW1,AFN Linkage Node 1 to Node 2 Volume Flow Rate [m3/s] !TimeStep
256,1,ZONE1UNITHEATAIROUTLETNODE,System Node Temperature [C] !TimeStep
257,1,ZONE1UNITHEATAIROUTLETNODE,System Node Mass Flow Rate [kg/s] !TimeStep
End of Data Dictionary
1,Lisboa PRT INETI WMO#=085360,  38.73,  -9.15,   0.00,  71.00
2,1, 1, 1, 0, 1, 0.00, 1.00,Sunday
6,11.1883333333333
7,0.0
8,15.7503531838852
9,13.0021231866506
10,0.0
11,0.0
12,0.0
13,0.0
14,15.5313230304314
15,0.0
16,15.2179338641134
17,5.750218504894175E-03
256,15.2380095503911
257,0.0
2,1, 1, 1, 0, 1, 1.00, 2.00,Sunday
6,11.1766666666667
7,0.0
8,15.739906533837
9,12.9938965027712
10,0.0
11,0.0
12,0.0
13,0.0
14,15.519146214966
15,0.0
16,15.1921268858004
17,5.717111309478322E-03
256,15.2179338641134
257,0.0
2,1, 1, 1, 0, 1, 2.00, 3.00,Sunday
6,11.165
7,0.0
8,15.7292761209009
9,12.9856693540493
10,0.0
11,0.0
12,0.0
13,0.0
14,15.5087385240449
15,0.0
16,15.1653517887065
17,5.682486143048298E-03
256,15.1921268858004
257,0.0
2,1, 1, 1, 0, 1, 3.00, 4.00,Sunday
6,11.1533333333333
7,0.0
8,15.7186348709293
9,12.977045060728
10,0.0
11,0.0
12,0.0
13,0.0
14,15.4976438445537
15,0.0
16,15.1397813191726
17,5.647363007634609E-03
256,15.1653517887065
257,0.0
2,1, 1, 1, 0, 1, 4.00, 5.00,Sunday
6,11.1416666666667
7,0.0
8,15.7080286259289
9,12.9684203563483
10,0.0
11,0.0
12,0.0
13,0.0
14,15.486749305483
15,0.0
16,15.1160126966629
17,5.509938620688604E-03
256,15.1397813191726
257,0.0
2,1, 1, 1, 0, 1, 5.00, 6.00,Sunday
6,11.13
7,0.0
8,15.6973877751056
9,12.9595154681859
10,0.0
11,0.0
12,0.0
13,0.0
14,15.4757462515917
15,0.0
16,15.094005170118
17,5.338779820599093E-03
256,15.1160126966629
257,0.0
2,1, 1, 1, 0, 1, 6.00, 7.00,Sunday
6,11.1183333333333
7,0.0
8,15.6868004556853
9,12.9506102069269
10,0.0
11,0.0
12,0.0
13,0.0
14,15.4647606085053
15,0.0
16,15.0735605741
17,5.164391956157304E-03
256,15.094005170118
257,0.0
2,1, 1, 1, 0, 1, 7.00, 8.00,Sunday
6,11.1066666666667
7,0.0
8,15.6762229143145
9,12.941486752844
10,0.0
11,0.0
12,0.0
13,0.0
14,15.4537599392194
15,0.0
16,15.0545049476627
17,4.986361044578092E-03
256,15.0735605741
257,0.0
2,1, 1, 1, 0, 1, 8.00, 9.00,Sunday
6,11.095
7,0.0
8,15.6656880364966
9,12.9323629552377
10,0.0
11,0.0
12,0.0
13,0.0
14,15.442767857737
15,0.0
16,15.0367154827917
17,4.804483683807686E-03
256,15.0545049476627
257,0.0
2,1, 1, 1, 0, 1, 9.00,10.00,Sunday
6,11.0833333333333
7,0.0
8,15.6551931324361
9,12.9230604658237
10,0.0
11,0.0
12,0.0
13,0.0
14,15.4317854329205
15,0.0
16,15.0201776167101
17,4.570761344163642E-03
256,15.0367154827917
257,0.0
2,1, 1, 1, 0, 1,10.00,11.00,Sunday
6,11.0716666666667
7,0.0
8,15.644736908697
9,12.9137576571127
10,0.0
11,0.0
12,0.0
13,0.0
14,15.4208216444696
15,0.0
16,15.0051123200412
17,4.177072947983466E-03
256,15.0201776167101
257,0.0
2,1, 1, 1, 0, 1,11.00,12.00,Sunday
6,11.06
7,0.0
8,15.6343519837226
9,12.9043038271229
10,0.0
11,0.0
12,0.0
13,0.0
14,15.4098812802332
15,0.0
16,14.9916546512619
17,3.761293402273097E-03
256,15.0051123200412
257,0.0
2,1, 1, 1, 0, 1,12.00,13.00,Sunday
6,11.0483333333333
7,0.0
8,15.6240170013364
9,12.8948496983158
10,0.0
11,0.0
12,0.0
13,0.0
14,15.3989730330816
15,0.0
16,14.9798737602925
17,3.318340134244934E-03
256,14.9916546512619
257,0.0
2,1, 1, 1, 0, 1,13.00,14.00,Sunday
6,11.0366666666667
7,0.0
8,15.6137875876246
9,12.8852651258426
10,0.0
11,0.0
12,0.0
13,0.0
14,15.3881038291233
15,0.0
16,14.9699185757722
17,2.839796438534179E-03
256,14.9798737602925
257,0.0
2,1, 1, 1, 0, 1,14.00,15.00,Sunday
6,11.025
7,0.0
8,15.6036151412704
9,12.8756802722453
10,0.0
11,0.0
12,0.0
13,0.0
14,15.3772827402571
15,0.0
16,14.9611479281056
17,2.359757228362469E-03
256,14.9699185757722
257,0.0
2,1, 1, 1, 0, 1,15.00,16.00,Sunday
6,11.0133333333333
7,0.0
8,15.5935653064672
9,12.8659809249213
10,0.0
11,0.0
12,0.0
13,0.0
14,15.366517490703
15,0.0
16,14.9519178749379
17,1.644506899505844E-03
256,14.9611479281056
257,0.0
2,1, 1, 1, 0, 1,16.00,17.00,Sunday
6,11.0016666666667
7,0.0
8,15.5835027084299
9,12.8562813120059
10,0.0
11,0.0
12,0.0
13,0.0
14,15.3558132930343
15,0.0
16,14.9413694672862
17,1.271573130149181E-03
256,14.9519178749379
257,0.0
2,1, 1, 1, 0, 1,17.00,18.00,Sunday
6,10.99
7,0.0
8,15.5734898018172
9,12.8464799476026
10,0.0
11,0.0
12,0.0
13,0.0
14,15.3451629421941
15,0.0
16,14.9294709520871
17,9.355767891833886E-04
256,14.9413694672862
257,0.0
2,1, 1, 1, 0, 1,18.00,19.00,Sunday
6,10.9783333333333
7,0.0
8,15.5634365021175
9,12.8366783314144
10,0.0
11,0.0
12,0.0
13,0.0
14,15.3345596354202
15,0.0
16,14.9164862327514
17,6.122585631919921E-04
256,14.9294709520871
257,0.0
2,1, 1, 1, 0, 1,19.00,20.00,Sunday
6,10.9666666666667
7,0.0
8,15.5533843641259
9,12.8267853784154
10,0.0
11,0.0
12,0.0
13,0.0
14,15.323994693503
15,0.0
16,14.9026844653658
17,2.731571436804993E-04
256,14.9164862327514
257,0.0
2,1, 1, 1, 0, 1,20.00,21.00,Sunday
6,10.955
7,0.0
8,15.5433078423795
9,12.8168921860269
10,0.0
11,0.0
12,0.0
13,0.0
14,15.3134629519562
15,0.0
16,14.888290024523
17,0.0
256,14.9026844653658
257,0.0
2,1, 1, 1, 0, 1,21.00,22.00,Sunday
6,10.9433333333333
7,0.0
8,15.5332117041841
9,12.8069163212357
10,0.0
11,0.0
12,0.0
13,0.0
14,15.302959316067
15,0.0
16,14.873601557958
17,0.0
256,14.888290024523
257,0.0
2,1, 1, 1, 0, 1,22.00,23.00,Sunday
6,10.9316666666667
7,0.0
8,15.5231070417678
9,12.7969402282759
10,0.0
11,0.0
12,0.0
13,0.0
14,15.2924804622725
15,0.0
16,14.8587830531329
17,0.0
256,14.873601557958
257,0.0
2,1, 1, 1, 0, 1,23.00,24.00,Sunday
6,10.92
7,0.0
8,15.5129856049753
9,12.7868887734601
10,0.0
11,0.0
12,0.0
13,0.0
14,15.2820245843229
15,0.0
16,14.8438946610697
17,0.0
256,14.8587830531329
257,0.0
2,1, 1, 1, 0, 1,24.00,25.00,Sunday
6,10.9083333333333
7,0.0
8,15.5028624603066
9,12.7768371007058
10,0.0
11,0.0
12,0.0
13,0.0
14,15.2715903635788
15,0.0
16,14.8289538644118
17,0.0
256,14.8438946610697
257,0.0
2,1, 1, 1, 0, 1,25.00,26.00,Sunday
6,10.8966666666667
7,0.0
8,15.492727163451
9,12.7667163056486
10,0.0
11,0.0
12,0.0
13,0.0
14,15.2611769686739
15,0.0
16,14.8139683749766
17,0.0
256,14.8289538644118
257,0.0
2,1, 1, 1, 0, 1,26.00,27.00,Sunday
6,10.885
7,0.0
8,15.4825908998475
9,12.7565953020369
10,0.0
11,0.0
12,0.0
13,0.0
14,15.250783369976
15,0.0
16,14.7990815774065
17,0.0
256,14.8139683749766
257,0.0
2,1, 1, 1, 0, 1,27.00,28.00,Sunday
6,10.8733333333333
7,0.0
8,15.4724499667094
9,12.7464105532761
10,0.0
11,0.0
12,0.0
13,0.0
14,15.2404088858223
15,0.0
16,14.7844387705017
17,0.0
256,14.7990815774065
257,0.0
2,1, 1, 1, 0, 1,28.00,29.00,Sunday
6,10.8616666666667
7,0.0
8,15.4623168869931
9,12.7362256046159
10,0.0
11,0.0
12,0.0
13,0.0
14,15.2300535688339
15,0.0
16,14.7700931815987
17,0.0
256,14.7844387705017
257,0.0
2,1, 1, 1, 0, 1,29.00,30.00,Sunday
6,10.85
7,0.0
8,15.4521911444858
9,12.725981583758
10,0.0
11,0.0
12,0.0
13,0.0
14,15.219718368132
15,0.0
16,14.7560391656737
17,0.0
256,14.7700931815987
257,0.0
2,1, 1, 1, 0, 1,30.00,31.00,Sunday
6,10.8383333333333
7,0.0
8,15.4420747702717
9,12.7157373710219
10,0.0
11,0.0
12,0.0
13,0.0
14,15.2094041844201
15,0.0
16,14.7422518143058
17,0.0
256,14.7560391656737
257,0.0
2,1, 1, 1, 0, 1,31.00,32.00,Sunday
6,10.8266666666667
7,0.0
8,15.4319742823478
9,12.7054381776238
10,0.0
11,0.0
12,0.0
13,0.0
14,15.1991119492782
15,0.0
16,14.7287246915855
17,0.0
256,14.7422518143058
257,0.0
2,1, 1, 1, 0, 1,32.00,33.00,Sunday
6,10.815
7,0.0
8,15.4218822401169
9,12.6951387998138
10,0.0
11,0.0
12,0.0
13,0.0
14,15.1888424441006
15,0.0
16,14.7155473010167
17,0.0
256,14.7287246915855
257,0.0
2,1, 1, 1, 0, 1,33.00,34.00,Sunday
6,10.8033333333333
7,0.0
8,15.411815119481
9,12.6847880485043
10,0.0
11,0.0
12,0.0
13,0.0
14,15.1785963659435
15,0.0
16,14.7027607898427
17,0.0
256,14.7155473010167
257,0.0
2,1, 1, 1, 0, 1,34.00,35.00,Sunday
6,10.7916666666667
7,0.0
8,15.4017604908401
9,12.6744371197598
10,0.0
11,0.0
12,0.0
13,0.0
14,15.1683752004349
15,0.0
16,14.6903584078844
17,0.0
256,14.7027607898427
257,0.0
2,1, 1, 1, 0, 1,35.00,36.00,Sunday
6,10.78
7,0.0
8,15.3917390571277
9,12.6640380180171
10,0.0
11,0.0
12,0.0
13,0.0
14,15.1581802215606
15,0.0
16,14.6783132812813
17,0.0
256,14.6903584078844
257,0.0
2,1, 1, 1, 0, 1,36.00,37.00,Sunday
6,10.7683333333333
7,0.0
8,15.3817291468812
9,12.6536387453819
10,0.0
11,0.0
12,0.0
13,0.0
14,15.1480129662775
15,0.0
16,14.6665955584699
17,0.0
256,14.6783132812813
257,0.0
2,1, 1, 1, 0, 1,37.00,38.00,Sunday
6,10.7566666666667
7,0.0
8,15.3717577418532
9,12.6431941563984
10,0.0
11,0.0
12,0.0
13,0.0
14,15.1378743581517
15,0.0
16,14.6553085528865
17,0.0
256,14.6665955584699
257,0.0
2,1, 1, 1, 0, 1,38.00,39.00,Sunday
6,10.745
7,0.0
8,15.3618001566175
9,12.6327494026769
10,0.0
11,0.0
12,0.0
13,0.0
14,15.127765688134
15,0.0
16,14.6445810746033
17,0.0
256,14.6553085528865
257,0.0
2,1, 1, 1, 0, 1,39.00,40.00,Sunday
6,10.7333333333333
7,0.0
8,15.3518934260587
9,12.6222618965101
10,0.0
11,0.0
12,0.0
13,0.0
14,15.1176883939237
15,0.0
16,14.6344575092626
17,0.0
256,14.6445810746033
257,0.0
2,1, 1, 1, 0, 1,40.00,41.00,Sunday
6,10.7216666666667
7,0.0
8,15.3420059075892
9,12.6117742314122
10,0.0
11,0.0
12,0.0
13,0.0
14,15.107645181589
15,0.0
16,14.6249247731752
17,0.0
256,14.6344575092626
257,0.0
2,1, 1, 1, 0, 1,41.00,42.00,Sunday
6,10.71
7,0.0
8,15.3321802778951
9,12.6012461268478
10,0.0
11,0.0
12,0.0
13,0.0
14,15.0976380401514
15,0.0
16,14.6159521905761
17,0.0
256,14.6249247731752
257,0.0
2,1, 1, 1, 0, 1,42.00,43.00,Sunday
6,10.6983333333333
7,0.0
8,15.3223726223718
9,12.5907178688447
10,0.0
11,0.0
12,0.0
13,0.0
14,15.0876697022208
15,0.0
16,14.6075469439477
17,0.0
256,14.6159521905761
257,0.0
2,1, 1, 1, 0, 1,43.00,44.00,Sunday
6,10.6866666666667
7,0.0
8,15.3126356242951
9,12.5801512678624
10,0.0
11,0.0
12,0.0
13,0.0
14,15.0777416772996
15,0.0
16,14.5998985872551
17,3.635407243934316E-04
256,14.6075469439477
257,0.0
2,1, 1, 1, 0, 1,44.00,45.00,Sunday
6,10.675
7,0.0
8,15.3029227156712
9,12.5695845186496
10,0.0
11,0.0
12,0.0
13,0.0
14,15.0678567151979
15,0.0
16,14.5931337365364
17,7.104664993625088E-04
256,14.5998985872551
257,0.0
2,1, 1, 1, 0, 1,45.00,46.00,Sunday
6,10.6633333333333
7,0.0
8,15.2932988831614
9,12.5589813350046
10,0.0
11,0.0
12,0.0
13,0.0
14,15.0580175255835
15,0.0
16,14.5873277779478
17,1.053587242304055E-03
256,14.5931337365364
257,0.0
2,1, 1, 1, 0, 1,46.00,47.00,Sunday
6,10.6516666666667
7,0.0
8,15.2837054974821
9,12.5483780080779
10,0.0
11,0.0
12,0.0
13,0.0
14,15.0482285771033
15,0.0
16,14.5825635127585
17,1.419078534065945E-03
256,14.5873277779478
257,0.0
2,1, 1, 1, 0, 1,47.00,48.00,Sunday
6,10.64
7,0.0
8,15.2742214889861
9,12.5377399911996
10,0.0
11,0.0
12,0.0
13,0.0
14,15.0384931325192
15,0.0
16,14.5790415827478
17,1.851069354797339E-03
256,14.5825635127585
257,0.0
2,1, 1, 1, 0, 1,48.00,49.00,Sunday
6,10.6283333333333
7,0.0
8,15.2647767791572
9,12.5271018357511
10,0.0
11,0.0
12,0.0
13,0.0
14,15.0288165551348
15,0.0
16,14.5765258348146
17,2.667314437541827E-03
256,14.5790415827478
257,0.0
2,1, 1, 1, 0, 1,49.00,50.00,Sunday
6,10.6166666666667
7,0.0
8,15.2554589184098
9,12.5164305909158
10,0.0
11,0.0
12,0.0
13,0.0
14,15.0192034287765
15,0.0
16,14.5732938829304
17,3.141734498147068E-03
256,14.5765258348146
257,0.0
2,1, 1, 1, 0, 1,50.00,51.00,Sunday
6,10.605
7,0.0
8,15.2461205469587
9,12.5057592120047
10,0.0
11,0.0
12,0.0
13,0.0
14,15.0096583763521
15,0.0
16,14.5682681560893
17,3.645676590068765E-03
256,14.5732938829304
257,0.0
2,1, 1, 1, 0, 1,51.00,52.00,Sunday
6,10.5933333333333
7,0.0
8,15.2368247195818
9,12.4950562175365
10,0.0
11,0.0
12,0.0
13,0.0
14,15.0001723626325
15,0.0
16,14.5613158980278
17,4.117160690810790E-03
256,14.5682681560893
257,0.0
2,1, 1, 1, 0, 1,52.00,53.00,Sunday
6,10.5816666666667
7,0.0
8,15.2274708727531
9,12.4843530932865
10,0.0
11,0.0
12,0.0
13,0.0
14,14.9907356261523
15,0.0
16,14.5527046196796
17,4.563258773106791E-03
256,14.5613158980278
257,0.0
2,1, 1, 1, 0, 1,53.00,54.00,Sunday
6,10.57
7,0.0
8,15.2180993898587
9,12.4736197153744
10,0.0
11,0.0
12,0.0
13,0.0
14,14.9813364647273
15,0.0
16,14.5427682943811
17,4.973857160605539E-03
256,14.5527046196796
257,0.0
2,1, 1, 1, 0, 1,54.00,55.00,Sunday
6,10.5583333333333
7,0.0
8,15.2086878604726
9,12.4628862117892
10,0.0
11,0.0
12,0.0
13,0.0
14,14.971966612304
15,0.0
16,14.5320432906182
17,5.184088653407692E-03
256,14.5427682943811
257,0.0
2,1, 1, 1, 0, 1,55.00,56.00,Sunday
6,10.5466666666667
7,0.0
8,15.1992381996855
9,12.4521237173819
10,0.0
11,0.0
12,0.0
13,0.0
14,14.9626186882525
15,0.0
16,14.5208392402182
17,5.390629347288599E-03
256,14.5320432906182
257,0.0
2,1, 1, 1, 0, 1,56.00,57.00,Sunday
6,10.535
7,0.0
8,15.1897741853754
9,12.4413611012387
10,0.0
11,0.0
12,0.0
13,0.0
14,14.9532886902334
15,0.0
16,14.5092790988989
17,5.593851724266326E-03
256,14.5208392402182
257,0.0
2,1, 1, 1, 0, 1,57.00,58.00,Sunday
6,10.5233333333333
7,0.0
8,15.1802730336302
9,12.4305706693824
10,0.0
11,0.0
12,0.0
13,0.0
14,14.9439740142501
15,0.0
16,14.4974048341511
17,5.793999396262511E-03
256,14.5092790988989
257,0.0
2,1, 1, 1, 0, 1,58.00,59.00,Sunday
6,10.5116666666667
7,0.0
8,15.1707624965236
9,12.4197801195674
10,0.0
11,0.0
12,0.0
13,0.0
14,14.9346719652582
15,0.0
16,14.4852401393079
17,5.991470390057809E-03
256,14.4974048341511
257,0.0
2,1, 1, 1, 0, 1,59.00,60.00,Sunday
6,10.5
7,0.0
8,15.1612181850886
9,12.4089628514742
10,0.0
11,0.0
12,0.0
13,0.0
14,14.9253808354035
15,0.0
16,14.4729279341826
17,6.107479356949050E-03
256,14.4852401393079
257,0.0
2,1, 1, 1, 0, 2, 0.00, 1.00,Sunday
6,10.4983333333333
7,0.0
8,15.1516769206497
9,12.4000036935047
10,0.0
11,0.0
12,0.0
13,0.0
14,14.9160982472067
15,0.0
16,14.4609410557766
17,5.990218763138281E-03
256,14.4729279341826
257,0.0
2,1, 1, 1, 0, 2, 1.00, 2.00,Sunday
6,10.4966666666667
7,0.0
8,15.1421268012181
9,12.3913911172157
10,0.0
11,0.0
12,0.0
13,0.0
14,14.9068337330859
15,0.0
16,14.4496570927755
17,5.791906990897063E-03
256,14.4609410557766
257,0.0
2,1, 1, 1, 0, 2, 2.00, 3.00,Sunday
6,10.495
7,0.0
8,15.1325994682837
9,12.3827772939306
10,0.0
11,0.0
12,0.0
13,0.0
14,14.8975884233479
15,0.0
16,14.4392000274887
17,5.591450693094455E-03
256,14.4496570927755
257,0.0
2,1, 1, 1, 0, 2, 3.00, 4.00,Sunday
6,10.4933333333333
7,0.0
8,15.1230961508704
9,12.3747645893447
10,0.0
11,0.0
12,0.0
13,0.0
14,14.8883672113146
15,0.0
16,14.4295497078955
17,5.388530771795702E-03
256,14.4392000274887
257,0.0
2,1, 1, 1, 0, 2, 4.00, 5.00,Sunday
6,10.4916666666667
7,0.0
8,15.1136182117368
9,12.3667507452523
10,0.0
11,0.0
12,0.0
13,0.0
14,14.8791735464688
15,0.0
16,14.4206438581377
17,5.182949343900923E-03
256,14.4295497078955
257,0.0
2,1, 1, 1, 0, 2, 5.00, 6.00,Sunday
6,10.49
7,0.0
8,15.1041867389457
9,12.3591604415507
10,0.0
11,0.0
12,0.0
13,0.0
14,14.8700109158477
15,0.0
16,14.4124235576236
17,4.974461242849229E-03
256,14.4206438581377
257,0.0
2,1, 1, 1, 0, 2, 6.00, 7.00,Sunday
6,10.4883333333333
7,0.0
8,15.0947770005788
9,12.3515690739993
10,0.0
11,0.0
12,0.0
13,0.0
14,14.8608825176223
15,0.0
16,14.4051135715994
17,4.590535814035347E-03
256,14.4124235576236
257,0.0
2,1, 1, 1, 0, 2, 7.00, 8.00,Sunday
6,10.4866666666667
7,0.0
8,15.0854355239041
9,12.3443073091569
10,0.0
11,0.0
12,0.0
13,0.0
14,14.8517907524471
15,0.0
16,14.3989228569333
17,4.154840870821084E-03
256,14.4051135715994
257,0.0
2,1, 1, 1, 0, 2, 8.00, 9.00,Sunday
6,10.485
7,0.0
8,15.0761292047959
9,12.3370445392875
10,0.0
11,0.0
12,0.0
13,0.0
14,14.8427403766515
15,0.0
16,14.3939629003169
17,3.696866390806593E-03
256,14.3989228569333
257,0.0
2,1, 1, 1, 0, 2, 9.00,10.00,Sunday
6,10.4833333333333
7,0.0
8,15.0669195012993
9,12.3300516695307
10,0.0
11,0.0
12,0.0
13,0.0
14,14.8337359701421
15,0.0
16,14.3903397636822
17,3.210531311566080E-03
256,14.3939629003169
257,0.0
2,1, 1, 1, 0, 2,10.00,11.00,Sunday
6,10.4816666666667
7,0.0
8,15.0577518535308
9,12.3230578428756
10,0.0
11,0.0
12,0.0
13,0.0
14,14.8247837088339
15,0.0
16,14.3882061084959
17,2.730077943811176E-03
256,14.3903397636822
257,0.0
2,1, 1, 1, 0, 2,11.00,12.00,Sunday
6,10.48
7,0.0
8,15.0487137575701
9,12.3162922209132
10,0.0
11,0.0
12,0.0
13,0.0
14,14.8158887955682
15,0.0
16,14.3859793069944
17,1.943609377185925E-03
256,14.3882061084959
257,0.0
2,1, 1, 1, 0, 2,12.00,13.00,Sunday
6,10.4783333333333
7,0.0
8,15.0396741738175
9,12.3095256827148
10,0.0
11,0.0
12,0.0
13,0.0
14,14.8070590016029
15,0.0
16,14.3822761321435
17,1.509948981581345E-03
256,14.3859793069944
257,0.0
2,1, 1, 1, 0, 2,13.00,14.00,Sunday
6,10.4766666666667
7,0.0
8,15.0306878656665
9,12.3029564424751
10,0.0
11,0.0
12,0.0
13,0.0
14,14.7982886126215
15,0.0
16,14.3767849864101
17,1.150202344688312E-03
256,14.3822761321435
257,0.0
2,1, 1, 1, 0, 2,14.00,15.00,Sunday
6,10.475
7,0.0
8,15.021647821124
9,12.2963863211293
10,0.0
11,0.0
12,0.0
13,0.0
14,14.7895689343122
15,0.0
16,14.3697403398923
17,8.159960013753126E-04
256,14.3767849864101
257,0.0
2,1, 1, 1, 0, 2,15.00,16.00,Sunday
6,10.4733333333333
7,0.0
8,15.0126020123311
9,12.2899896184833
10,0.0
11,0.0
12,0.0
13,0.0
14,14.7808888139506
15,0.0
16,14.3614744425644
17,4.887476006889248E-04
256,14.3697403398923
257,0.0
2,1, 1, 1, 0, 2,16.00,17.00,Sunday
6,10.4716666666667
7,0.0
8,15.0035193884967
9,12.2835920655874
10,0.0
11,0.0
12,0.0
13,0.0
14,14.77224061097
15,0.0
16,14.3522635323557
17,1.083898788936024E-04
256,14.3614744425644
257,0.0
2,1, 1, 1, 0, 2,17.00,18.00,Sunday
6,10.47
7,0.0
8,14.9944017547334
9,12.2773489087677
10,0.0
11,0.0
12,0.0
13,0.0
14,14.7636173554287
15,0.0
16,14.3423941640167
17,0.0
256,14.3522635323557
257,0.0
2,1, 1, 1, 0, 2,18.00,19.00,Sunday
6,10.4683333333333
7,0.0
8,14.9852643063211
9,12.2711049291509
10,0.0
11,0.0
12,0.0
13,0.0
14,14.755013822299
15,0.0
16,14.3321229600019
17,0.0
256,14.3423941640167
257,0.0
2,1, 1, 1, 0, 2,19.00,20.00,Sunday
6,10.4666666666667
7,0.0
8,14.9760903112854
9,12.2649998309695
10,0.0
11,0.0
12,0.0
13,0.0
14,14.7464265332872
15,0.0
16,14.3215831669594
17,0.0
256,14.3321229600019
257,0.0
2,1, 1, 1, 0, 2,20.00,21.00,Sunday
6,10.465
7,0.0
8,14.9669083347202
9,12.2588939346686
10,0.0
11,0.0
12,0.0
13,0.0
14,14.7378527889466
15,0.0
16,14.3108319762813
17,0.0
256,14.3215831669594
257,0.0
2,1, 1, 1, 0, 2,21.00,22.00,Sunday
6,10.4633333333333
7,0.0
8,14.957694630162
9,12.2529140272373
10,0.0
11,0.0
12,0.0
13,0.0
14,14.7292911598717
15,0.0
16,14.2998976592352
17,0.0
256,14.3108319762813
257,0.0
2,1, 1, 1, 0, 2,22.00,23.00,Sunday
6,10.4616666666667
7,0.0
8,14.9484755063533
9,12.246933344059
10,0.0
11,0.0
12,0.0
13,0.0
14,14.7207396709657
15,0.0
16,14.2888049170029
17,0.0
256,14.2998976592352
257,0.0
2,1, 1, 1, 0, 2,23.00,24.00,Sunday
6,10.46
7,0.0
8,14.9392291461223
9,12.2410677714528
10,0.0
11,0.0
12,0.0
13,0.0
14,14.712197367109
15,0.0
16,14.2777644773386
17,0.0
256,14.2888049170029
257,0.0
2,1, 1, 1, 0, 2,24.00,25.00,Sunday
6,10.4583333333333
7,0.0
8,14.9299845294228
9,12.2352014435271
10,0.0
11,0.0
12,0.0
13,0.0
14,14.703662620631
15,0.0
16,14.2668986749806
17,0.0
256,14.2777644773386
257,0.0
2,1, 1, 1, 0, 2,25.00,26.00,Sunday
6,10.4566666666667
7,0.0
8,14.9207264801962
9,12.2294409304054
10,0.0
11,0.0
12,0.0
13,0.0
14,14.6951360796235
15,0.0
16,14.2562378021553
17,0.0
256,14.2668986749806
257,0.0
2,1, 1, 1, 0, 2,26.00,27.00,Sunday
6,10.455
7,0.0
8,14.9114748736508
9,12.2236796807302
10,0.0
11,0.0
12,0.0
13,0.0
14,14.6866179447143
15,0.0
16,14.2457709363568
17,0.0
256,14.2562378021553
257,0.0
2,1, 1, 1, 0, 2,27.00,28.00,Sunday
6,10.4533333333333
7,0.0
8,14.9022201940767
9,12.218016217094
10,0.0
11,0.0
12,0.0
13,0.0
14,14.6781092518309
15,0.0
16,14.2354780993957
17,0.0
256,14.2457709363568
257,0.0
2,1, 1, 1, 0, 2,28.00,29.00,Sunday
6,10.4516666666667
7,0.0
8,14.8929710431459
9,12.2123520342359
10,0.0
11,0.0
12,0.0
13,0.0
14,14.6696103201105
15,0.0
16,14.2253869725947
17,0.0
256,14.2354780993957
257,0.0
2,1, 1, 1, 0, 2,29.00,30.00,Sunday
6,10.45
7,0.0
8,14.8837268395947
9,12.2067786394262
10,0.0
11,0.0
12,0.0
13,0.0
14,14.6611218863759
15,0.0
16,14.2155754840959
17,0.0
256,14.2253869725947
257,0.0
2,1, 1, 1, 0, 2,30.00,31.00,Sunday
6,10.4483333333333
7,0.0
8,14.8744914272224
9,12.2012045414759
10,0.0
11,0.0
12,0.0
13,0.0
14,14.6526445211595
15,0.0
16,14.206073979652
17,0.0
256,14.2155754840959
257,0.0
2,1, 1, 1, 0, 2,31.00,32.00,Sunday
6,10.4466666666667
7,0.0
8,14.8652707983011
9,12.195715083701
10,0.0
11,0.0
12,0.0
13,0.0
14,14.644179556586
15,0.0
16,14.1968737339097
17,0.0
256,14.206073979652
257,0.0
2,1, 1, 1, 0, 2,32.00,33.00,Sunday
6,10.445
7,0.0
8,14.8560596763771
9,12.1902249377687
10,0.0
11,0.0
12,0.0
13,0.0
14,14.6357281337001
15,0.0
16,14.1879510822636
17,0.0
256,14.1968737339097
257,0.0
2,1, 1, 1, 0, 2,33.00,34.00,Sunday
6,10.4433333333333
7,0.0
8,14.8468702117022
9,12.1848139934339
10,0.0
11,0.0
12,0.0
13,0.0
14,14.6272914460623
15,0.0
16,14.1792811928252
17,0.0
256,14.1879510822636
257,0.0
2,1, 1, 1, 0, 2,34.00,35.00,Sunday
6,10.4416666666667
7,0.0
8,14.8376888148348
9,12.1794023749541
10,0.0
11,0.0
12,0.0
13,0.0
14,14.6188705239272
15,0.0
16,14.1709888889143
17,0.0
256,14.1792811928252
257,0.0
2,1, 1, 1, 0, 2,35.00,36.00,Sunday
6,10.44
7,0.0
8,14.8285377343689
9,12.1740651171188
10,0.0
11,0.0
12,0.0
13,0.0
14,14.6104661849665
15,0.0
16,14.1631794516868
17,0.0
256,14.1709888889143
257,0.0
2,1, 1, 1, 0, 2,36.00,37.00,Sunday
6,10.4383333333333
7,0.0
8,14.8194018266628
9,12.1687271982867
10,0.0
11,0.0
12,0.0
13,0.0
14,14.6020803163766
15,0.0
16,14.1558784809968
17,0.0
256,14.1631794516868
257,0.0
2,1, 1, 1, 0, 2,37.00,38.00,Sunday
6,10.4366666666667
7,0.0
8,14.8103080865291
9,12.1634593068793
10,0.0
11,0.0
12,0.0
13,0.0
14,14.5937149281955
15,0.0
16,14.1490666005611
17,0.0
256,14.1558784809968
257,0.0
2,1, 1, 1, 0, 2,38.00,39.00,Sunday
6,10.435
7,0.0
8,14.8012298063997
9,12.1581907668498
10,0.0
11,0.0
12,0.0
13,0.0
14,14.5853723944065
15,0.0
16,14.1427123477464
17,0.0
256,14.1490666005611
257,0.0
2,1, 1, 1, 0, 2,39.00,40.00,Sunday
6,10.4333333333333
7,0.0
8,14.7922024628092
9,12.152988355477
10,0.0
11,0.0
12,0.0
13,0.0
14,14.577054442753
15,0.0
16,14.1368345914618
17,3.063462916909789E-05
256,14.1427123477464
257,0.0
2,1, 1, 1, 0, 2,40.00,41.00,Sunday
6,10.4316666666667
7,0.0
8,14.7831902820332
9,12.147785307161
10,0.0
11,0.0
12,0.0
13,0.0
14,14.5687632357642
15,0.0
16,14.1315710938451
17,4.267699779777837E-04
256,14.1368345914618
257,0.0
2,1, 1, 1, 0, 2,41.00,42.00,Sunday
6,10.43
7,0.0
8,14.7742414559405
9,12.1426448628348
10,0.0
11,0.0
12,0.0
13,0.0
14,14.5605003566095
15,0.0
16,14.1270317498444
17,7.397536739127357E-04
256,14.1315710938451
257,0.0
2,1, 1, 1, 0, 2,42.00,43.00,Sunday
6,10.4283333333333
7,0.0
8,14.7653154744256
9,12.1375037926154
10,0.0
11,0.0
12,0.0
13,0.0
14,14.5522691087873
15,0.0
16,14.1232800396611
17,1.052023531790485E-03
256,14.1270317498444
257,0.0
2,1, 1, 1, 0, 2,43.00,44.00,Sunday
6,10.4266666666667
7,0.0
8,14.7564691792218
9,12.1324221257246
10,0.0
11,0.0
12,0.0
13,0.0
14,14.5440722035625
15,0.0
16,14.1203821275651
17,1.384701698230888E-03
256,14.1232800396611
257,0.0
2,1, 1, 1, 0, 2,44.00,45.00,Sunday
6,10.425
7,0.0
8,14.7476498485065
9,12.1273398434201
10,0.0
11,0.0
12,0.0
13,0.0
14,14.5359137344713
15,0.0
16,14.1184948473906
17,1.774708597349657E-03
256,14.1203821275651
257,0.0
2,1, 1, 1, 0, 2,45.00,46.00,Sunday
6,10.4233333333333
7,0.0
8,14.7389318254115
9,12.1223140459586
10,0.0
11,0.0
12,0.0
13,0.0
14,14.5277967912271
15,0.0
16,14.1174105543845
17,2.521272691824854E-03
256,14.1184948473906
257,0.0
2,1, 1, 1, 0, 2,46.00,47.00,Sunday
6,10.4216666666667
7,0.0
8,14.7302393900009
9,12.1172876430423
10,0.0
11,0.0
12,0.0
13,0.0
14,14.5197268921085
15,0.0
16,14.1157459920402
17,2.935742299701486E-03
256,14.1174105543845
257,0.0
2,1, 1, 1, 0, 2,47.00,48.00,Sunday
6,10.42
7,0.0
8,14.721615693193
9,12.1123150535741
10,0.0
11,0.0
12,0.0
13,0.0
14,14.5117059672333
15,0.0
16,14.1125419728014
17,3.381254668582752E-03
256,14.1157459920402
257,0.0
2,1, 1, 1, 0, 2,48.00,49.00,Sunday
6,10.4183333333333
7,0.0
8,14.7129457445078
9,12.1073418681339
10,0.0
11,0.0
12,0.0
13,0.0
14,14.5037289667707
15,0.0
16,14.107658568197
17,3.795350487629482E-03
256,14.1125419728014
257,0.0
2,1, 1, 1, 0, 2,49.00,50.00,Sunday
6,10.4166666666667
7,0.0
8,14.7042812752421
9,12.1024200423096
10,0.0
11,0.0
12,0.0
13,0.0
14,14.4957854379416
15,0.0
16,14.1013252108684
17,4.184070537513276E-03
256,14.107658568197
257,0.0
2,1, 1, 1, 0, 2,50.00,51.00,Sunday
6,10.415
7,0.0
8,14.6955728471498
9,12.0974976295589
10,0.0
11,0.0
12,0.0
13,0.0
14,14.4878671613061
15,0.0
16,14.0938191015386
17,4.552016365963989E-03
256,14.1013252108684
257,0.0
2,1, 1, 1, 0, 2,51.00,52.00,Sunday
6,10.4133333333333
7,0.0
8,14.6868321769577
9,12.0926243152392
10,0.0
11,0.0
12,0.0
13,0.0
14,14.4799660438396
15,0.0
16,14.0856067490172
17,4.729910474008650E-03
256,14.0938191015386
257,0.0
2,1, 1, 1, 0, 2,52.00,53.00,Sunday
6,10.4116666666667
7,0.0
8,14.6780700436782
9,12.0877504226359
10,0.0
11,0.0
12,0.0
13,0.0
14,14.4720761634383
15,0.0
16,14.0769709467191
17,4.898155190610813E-03
256,14.0856067490172
257,0.0
2,1, 1, 1, 0, 2,53.00,54.00,Sunday
6,10.41
7,0.0
8,14.669274311558
9,12.08292353886
10,0.0
11,0.0
12,0.0
13,0.0
14,14.4641942631861
15,0.0
16,14.0680287200706
17,5.062281332174735E-03
256,14.0769709467191
257,0.0
2,1, 1, 1, 0, 2,54.00,55.00,Sunday
6,10.4083333333333
7,0.0
8,14.660469267536
9,12.078096085071
10,0.0
11,0.0
12,0.0
13,0.0
14,14.4563178222897
15,0.0
16,14.0588231632569
17,5.222477351266542E-03
256,14.0680287200706
257,0.0
2,1, 1, 1, 0, 2,55.00,56.00,Sunday
6,10.4066666666667
7,0.0
8,14.6516352046093
9,12.0733137042513
10,0.0
11,0.0
12,0.0
13,0.0
14,14.4484453800908
15,0.0
16,14.0493781373759
17,5.379128814434786E-03
256,14.0588231632569
257,0.0
2,1, 1, 1, 0, 2,56.00,57.00,Sunday
6,10.405
7,0.0
8,14.6427938258041
9,12.0685307613442
10,0.0
11,0.0
12,0.0
13,0.0
14,14.4405750427527
15,0.0
16,14.039780876022
17,5.486842177862480E-03
256,14.0493781373759
257,0.0
2,1, 1, 1, 0, 2,57.00,58.00,Sunday
6,10.4033333333333
7,0.0
8,14.6339295809632
9,12.0637910941764
10,0.0
11,0.0
12,0.0
13,0.0
14,14.432705727902
15,0.0
16,14.0301986585043
17,5.513784309652570E-03
256,14.039780876022
257,0.0
2,1, 1, 1, 0, 2,58.00,59.00,Sunday
6,10.4016666666667
7,0.0
8,14.6250657706548
9,12.0590508725268
10,0.0
11,0.0
12,0.0
13,0.0
14,14.4248363372928
15,0.0
16,14.0207180033468
17,5.540431728123703E-03
256,14.0301986585043
257,0.0
2,1, 1, 1, 0, 2,59.00,60.00,Sunday
6,10.4
7,0.0
8,14.6161913352614
9,12.0543522551741
10,0.0
11,0.0
12,0.0
13,0.0
14,14.4169673453611
15,0.0
16,14.0113581976089
17,5.566808088677462E-03
256,14.0207180033468
257,0.0
2,1, 1, 1, 0, 3, 0.00, 1.00,Sunday
6,10.4
7,0.0
8,14.6073226569583
9,12.0503891818951
10,0.0
11,0.0
12,0.0
13,0.0
14,14.4090989646036
15,0.0
16,14.002261251537
17,5.489356686985564E-03
256,14.0113581976089
257,0.0
2,1, 1, 1, 0, 3, 1.00, 2.00,Sunday
6,10.4
7,0.0
8,14.5984585272414
9,12.0466125168704
10,0.0
11,0.0
12,0.0
13,0.0
14,14.401234712573
15,0.0
16,13.9934994478037
17,5.412673106600993E-03
256,14.002261251537
257,0.0
2,1, 1, 1, 0, 3, 2.00, 3.00,Sunday
6,10.4
7,0.0
8,14.5896050018696
9,12.0428329520919
10,0.0
11,0.0
12,0.0
13,0.0
14,14.3933758156916
15,0.0
16,13.9850772128416
17,5.336778442988254E-03
256,13.9934994478037
257,0.0
2,1, 1, 1, 0, 3, 3.00, 4.00,Sunday
6,10.4
7,0.0
8,14.5807696144797
9,12.0393388391714
10,0.0
11,0.0
12,0.0
13,0.0
14,14.385524271175
15,0.0
16,13.9770660455093
17,5.191102731679555E-03
256,13.9850772128416
257,0.0
2,1, 1, 1, 0, 3, 4.00, 5.00,Sunday
6,10.4
7,0.0
8,14.5719470295054
9,12.0358420413816
10,0.0
11,0.0
12,0.0
13,0.0
14,14.3776816687869
15,0.0
16,13.9695570786683
17,4.997988880172183E-03
256,13.9770660455093
257,0.0
2,1, 1, 1, 0, 3, 5.00, 6.00,Sunday
6,10.4
7,0.0
8,14.5631588316157
9,12.0325578983163
10,0.0
11,0.0
12,0.0
13,0.0
14,14.3698500047975
15,0.0
16,13.962572229057
17,4.805843171029706E-03
256,13.9695570786683
257,0.0
2,1, 1, 1, 0, 3, 6.00, 7.00,Sunday
6,10.4
7,0.0
8,14.5543869765393
9,12.0292712297814
10,0.0
11,0.0
12,0.0
13,0.0
14,14.3620319727487
15,0.0
16,13.9560871439871
17,4.614469339717965E-03
256,13.962572229057
257,0.0
2,1, 1, 1, 0, 3, 7.00, 8.00,Sunday
6,10.4
7,0.0
8,14.5456621717228
9,12.0261579057823
10,0.0
11,0.0
12,0.0
13,0.0
14,14.3542297667899
15,0.0
16,13.9500635932334
17,4.423802710490222E-03
256,13.9560871439871
257,0.0
2,1, 1, 1, 0, 3, 8.00, 9.00,Sunday
6,10.4
7,0.0
8,14.5369518930334
9,12.0230421858289
10,0.0
11,0.0
12,0.0
13,0.0
14,14.3464460292692
15,0.0
16,13.9444647115585
17,4.233893425760782E-03
256,13.9500635932334
257,0.0
2,1, 1, 1, 0, 3, 9.00,10.00,Sunday
6,10.4
7,0.0
8,14.5282968839619
9,12.0200743147249
10,0.0
11,0.0
12,0.0
13,0.0
14,14.3386823650723
15,0.0
16,13.9394797140516
17,3.894067710157643E-03
256,13.9444647115585
257,0.0
2,1, 1, 1, 0, 3,10.00,11.00,Sunday
6,10.4
7,0.0
8,14.5196611522128
9,12.0171041578454
10,0.0
11,0.0
12,0.0
13,0.0
14,14.330941146676
15,0.0
16,13.9352530957896